% Model:              sin_rho_nogr_iter1_epsilon3_revised.mph
% Version:            COMSOL 6.0.0.318
% Date:               Feb 27 2024, 02:42
% Dimension:          2
% Nodes:              43229
% Expressions:        1
% Description:        Surface
% cpl5x                   cpl5y                    Electric potential
3.973460209353155E-8      3.969251114284399E-8     0
3.9598503515211396E-8     4.0E-8                   0
3.933310560874295E-8      3.969251114284399E-8     0
3.946920418706311E-8      3.938502228568798E-8     0
4.0E-8                    4.0E-8                   0
3.919700703042279E-8      4.0E-8                   0
4.0E-8                    3.9598506973848554E-8    0
3.973460209353155E-8      3.929101811669254E-8     0
4.0E-8                    3.9197013947697107E-8    0
3.909574426797788E-8      3.9318870927237664E-8    0
3.8959645689657715E-8     3.9626359784393675E-8    0
3.8722284348892645E-8     3.925271956878735E-8     0
3.854269290890506E-8      3.9626359784393675E-8    0
3.878005424967013E-8      4.0E-8                   0
3.836310146891747E-8      4.0E-8                   0
3.9442249476825174E-8     3.906758932954335E-8     0
3.906878955773994E-8      3.9001437971093036E-8    0
3.941529476658723E-8      3.875015637339873E-8     0
3.9707647383293616E-8     3.8973585160547914E-8    0
4.0E-8                    3.878006153914375E-8     0
3.9707647383293616E-8     3.855663275199456E-8     0
4.0E-8                    3.836310913059039E-8     0
3.827834478637798E-8      3.9309533851534947E-8    0
3.80987533463904E-8       3.968317406714127E-8     0
3.783440522386332E-8      3.9366348134282544E-8    0
3.7681763071393065E-8     3.9683174067141266E-8    0
3.794611119392014E-8      4.0E-8                   0
3.7529120918922814E-8     3.9999999999999994E-8    0
3.7959071150652164E-8     3.903564017166293E-8     0
3.840301071316683E-8      3.8978825888915333E-8    0
3.808373707744102E-8      3.870493220904332E-8     0
3.869954397220331E-8      3.879275269666978E-8     0
3.83802703364775E-8       3.851885901679776E-8     0
3.867680359551398E-8      3.833278582455221E-8     0
3.90460491810506E-8       3.854147109897547E-8     0
3.935431116311789E-8      3.834033186334971E-8     0
3.898506557758127E-8      3.8131646588926444E-8    0
3.929332755964855E-8      3.793050735330069E-8     0
3.964666377982428E-8      3.8146808241945534E-8    0
4.0E-8                    3.794611885559306E-8     0
3.964666377982428E-8      3.7729817966948214E-8    0
4.0E-8                    3.7529128580595735E-8    0
3.744912450392848E-8      3.93549612477098E-8      0
3.729648235145822E-8      3.967178718056852E-8     0
3.706384378399364E-8      3.9343574361137045E-8    0
3.6879492076460903E-8     3.967178718056852E-8     0
3.711213064392549E-8      4.0E-8                   0
3.669514036892817E-8      4.0E-8                   0
3.7253579562302576E-8     3.9003499432767614E-8    0
3.763886028223741E-8      3.901488631934036E-8     0
3.744331534061151E-8      3.866342450439818E-8     0
3.776352620902626E-8      3.868417835672075E-8     0
3.963905799319415E-8      3.732063344309707E-8     0
3.9285721773018426E-8     3.752132282944955E-8     0
3.92781159863883E-8       3.711213830559841E-8     0
4.0E-8                    3.7112138305598416E-8    0
3.963905799319415E-8      3.690364316809975E-8     0
4.0E-8                    3.6695148030601096E-8    0
3.827107087499237E-8      3.813152980610785E-8     0
3.797453761595589E-8      3.83176029983534E-8      0
3.786533815447076E-8      3.793027378766349E-8     0
3.765432674754114E-8      3.829684914603083E-8     0
3.8930495254543804E-8     3.730571047669637E-8     0
3.893810104117393E-8      3.771489500054751E-8     0
3.858287452269931E-8      3.749928264779433E-8     0
3.8224106338585035E-8     3.771477821772891E-8     0
3.862983905910664E-8      3.791603423617327E-8     0
3.665371286583736E-8      3.93281914214527E-8      0
3.646936115830463E-8      3.9656404240884184E-8    0
3.6243581947681094E-8     3.9312808481768366E-8    0
3.605237088330731E-8      3.9656404240884184E-8    0
3.627815009393084E-8      4.0E-8                   0
3.5861159818933516E-8     4.0E-8                   0
3.963905799319415E-8      3.648665289310243E-8     0
3.92781159863883E-8       3.669514803060108E-8     0
3.92781159863883E-8       3.6278157755603764E-8    0
4.0E-8                    3.6278157755603764E-8    0
3.963905799319415E-8      3.60696626181051E-8      0
4.0E-8                    3.586116748060643E-8     0
3.6457068754860465E-8     3.895009768277601E-8     0
3.686719967301674E-8      3.8965480622460345E-8    0
3.667055556203984E-8      3.8587386883783646E-8    0
3.705693545132568E-8      3.862540569409091E-8     0
3.7486316012720745E-8     3.8020896146210566E-8    0
3.7275304605791114E-8     3.838747150457791E-8     0
3.710729387097072E-8      3.811151850475765E-8     0
3.6888924716505285E-8     3.834945269427065E-8     0
3.8917173979582456E-8     3.690364316809975E-8     0
3.856955324773796E-8      3.709721533919771E-8     0
3.8556231972776605E-8     3.669514803060108E-8     0
3.8917173979582456E-8     3.6486652893102423E-8    0
3.7130584755207075E-8     3.777486910123651E-8     0
3.75096068969571E-8       3.768424674268943E-8     0
3.7153875639443436E-8     3.7438219697715367E-8    0
3.82201537674663E-8       3.7288162358105726E-8    0
3.7861385583352025E-8     3.750365792804031E-8     0
3.785743301223329E-8      3.707704206841712E-8     0
3.750565432583836E-8      3.725763088306624E-8     0
3.8206832492504943E-8     3.6886095049509106E-8    0
3.544416954393619E-8      4.0E-8                   0
3.565266468143485E-8      3.963905799319415E-8     0
3.523567440643753E-8      3.963905799319415E-8     0
3.544416954393619E-8      3.92781159863883E-8      0
3.5027179268938864E-8     4.0E-8                   0
3.584387574580864E-8      3.929546223407833E-8     0
3.963905799319415E-8      3.5652672343107765E-8    0
3.92781159863883E-8       3.586116748060643E-8     0
3.92781159863883E-8       3.54441772056091E-8      0
4.0E-8                    3.54441772056091E-8      0
3.963905799319415E-8      3.523568206811043E-8     0
4.0E-8                    3.502718693061177E-8     0
3.605212632030334E-8      3.892401819861139E-8     0
3.56524201184309E-8       3.8906671950921356E-8    0
3.58606706929256E-8       3.853522791545441E-8     0
3.626561312748272E-8      3.8561307399619026E-8    0
3.891717397958245E-8      3.5652672343107765E-8    0
3.891717397958245E-8      3.60696626181051E-8      0
3.85562319727766E-8       3.5861167480606424E-8    0
3.85562319727766E-8       3.627815775560375E-8     0
3.673910012304333E-8      3.796354293901194E-8     0
3.6520730968577894E-8     3.820147712852494E-8     0
3.6370906375115944E-8     3.7815567373266234E-8    0
3.676239100727969E-8      3.76268935354908E-8      0
3.611578853402077E-8      3.8175397644360324E-8    0
3.783589645771395E-8      3.665847890729829E-8     0
3.8185295937985604E-8     3.646753188839027E-8     0
3.78143599031946E-8       3.6239915746179456E-8    0
3.8185295937985604E-8     3.605054161339294E-8     0
3.686651569749063E-8      3.725024879171863E-8     0
3.647503106532689E-8      3.743892262949407E-8     0
3.657915575553783E-8      3.70622778857219E-8      0
3.7496329937043316E-8     3.685342726212923E-8     0
3.747479338252397E-8      3.643486410101039E-8     0
3.7135226861853344E-8     3.662981245584133E-8     0
3.714455125064839E-8      3.703401607677835E-8     0
3.685719130869559E-8      3.684604517078162E-8     0
3.5027179268938864E-8     3.92781159863883E-8      0
3.48186841314402E-8       3.963905799319415E-8     0
3.461018899394153E-8      3.92781159863883E-8      0
3.461018899394154E-8      4.0E-8                   0
3.440169385644287E-8      3.963905799319415E-8     0
3.419319871894421E-8      4.0E-8                   0
3.544392498093223E-8      3.854572994411551E-8     0
3.5235674406437524E-8     3.8917173979582456E-8    0
3.502717926893886E-8      3.855623197277662E-8     0
3.48186841314402E-8       3.8917173979582456E-8    0
3.92781159863883E-8       3.502718693061177E-8     0
3.963905799319415E-8      3.481869179311311E-8     0
3.92781159863883E-8       3.4610196655614446E-8    0
4.0E-8                    3.461019665561446E-8     0
3.963905799319415E-8      3.440170151811579E-8     0
4.0E-8                    3.419320638061714E-8     0
3.8917173979582456E-8     3.523568206811043E-8     0
3.8917173979582456E-8     3.4818691793113106E-8    0
3.8556231972776605E-8     3.5027186930611766E-8    0
3.85562319727766E-8       3.54441772056091E-8      0
3.592444984111385E-8      3.781179415516405E-8     0
3.5669332000018674E-8     3.817162442625814E-8     0
3.547799330711175E-8      3.780802093706186E-8     0
3.525258628802531E-8      3.818212645491924E-8     0
3.782435393117975E-8      3.584204647589427E-8     0
3.8195289965970754E-8     3.565267234310775E-8     0
3.7834347959164904E-8     3.5444177205609085E-8    0
3.8195289965970754E-8     3.5235682068110425E-8    0
3.6111121129916035E-8     3.745064755878242E-8     0
3.5664664595913944E-8     3.7446874340680235E-8    0
3.585133588471613E-8      3.7085727744298605E-8    0
3.6215245820126984E-8     3.707400281501026E-8     0
3.710593301281729E-8      3.6243417383966566E-8    0
3.7445499533487925E-8     3.6048469029135624E-8    0
3.707663916378124E-8      3.585702231209179E-8     0
3.7455493561473076E-8     3.565059975885044E-8     0
3.6080425330565774E-8     3.669541254247579E-8     0
3.644433526597662E-8      3.6683687613187435E-8    0
3.6309514776415416E-8     3.630509734065297E-8     0
3.672237081913438E-8      3.646745489824715E-8     0
3.669307697009833E-8      3.608105982637238E-8     0
3.92781159863883E-8       3.419320638061713E-8     0
3.963905799319415E-8      3.3984711243118474E-8    0
3.92781159863883E-8       3.37762161056198E-8      0
4.0E-8                    3.3776216105619814E-8    0
3.963905799319416E-8      3.356772096812114E-8     0
4.000000000000001E-8      3.335922583062249E-8     0
3.419319871894421E-8      3.92781159863883E-8      0
3.3984703581445546E-8     3.963905799319415E-8     0
3.3776208443946886E-8     3.92781159863883E-8      0
3.377620844394689E-8      4.0E-8                   0
3.3567713306448226E-8     3.963905799319416E-8     0
3.3359218168949567E-8     4.000000000000001E-8     0
3.4401693856442865E-8     3.8917173979582456E-8    0
3.3984703581445546E-8     3.8917173979582456E-8    0
3.41931987189442E-8       3.855623197277662E-8     0
3.461018899394153E-8      3.855623197277662E-8     0
3.5044091150526634E-8     3.7821184448113395E-8    0
3.4818684131440185E-8     3.8195289965970774E-8    0
3.461018899394152E-8      3.783434795916493E-8     0
3.440169385644286E-8      3.8195289965970774E-8    0
3.8917173979582456E-8     3.440170151811579E-8     0
3.8917173979582456E-8     3.398471124311847E-8     0
3.855623197277662E-8      3.4193206380617133E-8    0
3.855623197277661E-8      3.4610196655614446E-8    0
3.819528996597076E-8      3.48186917931131E-8      0
3.819528996597077E-8      3.4401701518115787E-8    0
3.783434795916492E-8      3.461019665561444E-8     0
3.783434795916491E-8      3.5027186930611766E-8    0
3.5426799887003336E-8     3.709099882473165E-8     0
3.524012859820114E-8      3.7452145421113276E-8    0
3.5002263889290533E-8     3.70962699051647E-8      0
3.4806226441616026E-8     3.746530893216482E-8     0
3.747325192909288E-8      3.5236736230012156E-8    0
3.709439753140105E-8      3.544315878325351E-8     0
3.711215589902085E-8      3.5029295254415227E-8    0
3.747325192909288E-8      3.481974595501483E-8     0
3.562896750359167E-8      3.672466319097745E-8     0
3.58580569494413E-8       3.633434798915463E-8     0
3.5406599122467195E-8     3.636359863765629E-8     0
3.5204431505878864E-8     3.672993427141049E-8     0
3.6743490533169194E-8     3.565051488758169E-8     0
3.6761248900789E-8        3.5236651358743405E-8    0
3.641034190255714E-8      3.5444007463071584E-8    0
3.635992833948628E-8      3.587455240186227E-8     0
3.604382145420849E-8      3.600930550452675E-8     0
3.5592363627234375E-8     3.603855615302841E-8     0
3.5778128132001554E-8     3.5713513668400526E-8    0
3.609423501727935E-8      3.557876056573605E-8     0
3.92781159863883E-8       3.335922583062249E-8     0
3.963905799319416E-8      3.315073069312383E-8     0
3.92781159863883E-8       3.294223555562517E-8     0
4.0E-8                    3.294223555562516E-8     0
3.963905799319415E-8      3.27337404181265E-8      0
4.0E-8                    3.2525245280627836E-8    0
3.335921816894956E-8      3.92781159863883E-8      0
3.31507230314509E-8       3.963905799319416E-8     0
3.2942227893952234E-8     3.92781159863883E-8      0
3.294222789395224E-8      4.0E-8                   0
3.2733732756453574E-8     3.9639057993194144E-8    0
3.252523761895491E-8      3.9999999999999994E-8    0
3.8917173979582456E-8     3.356772096812114E-8     0
3.8917173979582456E-8     3.315073069312383E-8     0
3.855623197277662E-8      3.335922583062249E-8     0
3.855623197277662E-8      3.377621610561981E-8     0
3.3567713306448226E-8     3.8917173979582456E-8    0
3.31507230314509E-8       3.8917173979582456E-8    0
3.3359218168949567E-8     3.8556231972776605E-8    0
3.377620844394688E-8      3.855623197277661E-8     0
3.3984703581445546E-8     3.819528996597077E-8     0
3.3567713306448226E-8     3.819528996597076E-8     0
3.377620844394689E-8      3.783434795916492E-8     0
3.4193198718944206E-8     3.7834347959164924E-8    0
3.440169385644286E-8      3.747340595235908E-8     0
3.3984703581445546E-8     3.747340595235908E-8     0
3.41931987189442E-8       3.7112463945553236E-8    0
3.4597731304117366E-8     3.710436692535897E-8     0
3.783434795916492E-8      3.419320638061712E-8     0
3.819528996597077E-8      3.398471124311847E-8     0
3.783434795916492E-8      3.37762161056198E-8      0
3.819528996597077E-8      3.356772096812114E-8     0
3.7112309922287044E-8     3.461125081751618E-8     0
3.747340595235908E-8      3.4401701518115787E-8    0
3.7112463945553236E-8     3.4193206380617133E-8    0
3.747340595235908E-8      3.398471124311847E-8     0
3.500116461624897E-8      3.6351100040972656E-8    0
3.479899699966064E-8      3.671743567472686E-8     0
3.459573011003074E-8      3.6338601444289024E-8    0
3.439446441448747E-8      3.672553269492113E-8     0
3.641159159274656E-8      3.5022810052705806E-8    0
3.676249859097841E-8      3.481545394837763E-8     0
3.641284128293597E-8      3.460161264234003E-8     0
3.676265261424461E-8      3.4397409511478584E-8    0
3.4808204087741114E-8     3.5943353308845686E-8    0
3.521363859395934E-8      3.595585190552932E-8     0
3.502067806545149E-8      3.554810517340235E-8     0
3.5399403098726525E-8     3.5630809420901437E-8    0
3.605992870744734E-8      3.523645677057934E-8     0
3.606117839763676E-8      3.481525936021357E-8     0
3.570951551233755E-8      3.5028906078087106E-8    0
3.574382182216955E-8      3.5371209873243816E-8    0
3.5365096788894515E-8     3.5288505625744726E-8    0
3.92781159863883E-8       3.2525245280627836E-8    0
3.963905799319415E-8      3.231675014312917E-8     0
3.92781159863883E-8       3.210825500563051E-8     0
4.0E-8                    3.21082550056305E-8      0
3.9639057993194144E-8     3.1899759868131844E-8    0
3.9999999999999994E-8     3.169126473063318E-8     0
3.252523761895491E-8      3.92781159863883E-8      0
3.231674248145624E-8      3.9639057993194144E-8    0
3.210824734395758E-8      3.92781159863883E-8      0
3.210824734395758E-8      4.0E-8                   0
3.189975220645892E-8      3.963905799319415E-8     0
3.1691257068960256E-8     4.0E-8                   0
3.8917173979582456E-8     3.27337404181265E-8      0
3.8917173979582456E-8     3.231675014312917E-8     0
3.855623197277662E-8      3.2525245280627836E-8    0
3.855623197277662E-8      3.294223555562516E-8     0
3.2733732756453574E-8     3.8917173979582456E-8    0
3.231674248145624E-8      3.8917173979582456E-8    0
3.252523761895491E-8      3.8556231972776605E-8    0
3.294222789395224E-8      3.8556231972776605E-8    0
3.783434795916492E-8      3.3359225830622475E-8    0
3.819528996597077E-8      3.3150730693123815E-8    0
3.783434795916492E-8      3.294223555562514E-8     0
3.819528996597077E-8      3.273374041812649E-8     0
3.2733732756453574E-8     3.8195289965970754E-8    0
3.31507230314509E-8       3.8195289965970754E-8    0
3.2942227893952234E-8     3.7834347959164904E-8    0
3.335921816894956E-8      3.783434795916491E-8     0
3.377620844394689E-8      3.711246394555322E-8     0
3.356771330644824E-8      3.7473405952359066E-8    0
3.3359218168949587E-8     3.7112463945553216E-8    0
3.315072303145091E-8      3.747340595235906E-8     0
3.417623772145274E-8      3.6357860327038556E-8    0
3.397497202590947E-8      3.674479157767066E-8     0
3.375674533287475E-8      3.637711920978809E-8     0
3.3557981750912164E-8     3.674479157767065E-8     0
3.7112463945553236E-8     3.377621610561981E-8     0
3.747340595235908E-8      3.356772096812114E-8     0
3.7112463945553236E-8     3.335922583062249E-8     0
3.747340595235908E-8      3.3150730693123815E-8    0
3.675152193874739E-8      3.3984711243118474E-8    0
3.675152193874739E-8      3.3567720968121154E-8    0
3.639057993194155E-8      3.3776216105619814E-8    0
3.6401710607438763E-8     3.418891437397992E-8     0
3.395254030337269E-8      3.601512980227233E-8     0
3.4372032691950686E-8     3.59958709195228E-8      0
3.4148335273870633E-8     3.5653140394756575E-8    0
3.458450666966106E-8      3.560062278407946E-8     0
3.571090962715025E-8      3.461945990344396E-8     0
3.606257251244946E-8      3.440581318557043E-8     0
3.5712303741962953E-8     3.421001372880083E-8     0
3.605144183695225E-8      3.3993114917210324E-8    0
3.427769187233731E-8      3.5337658564620144E-8    0
3.471386326812774E-8      3.528514095394303E-8     0
3.440704847080399E-8      3.502217673448372E-8     0
3.502414433386463E-8      3.5091779695081086E-8    0
3.471732953654088E-8      3.4828815475621776E-8    0
3.502761060227778E-8      3.463545421675983E-8     0
3.536856305730766E-8      3.483218014742347E-8     0
3.5369957172120365E-8     3.442273397278033E-8     0
3.1691257068960256E-8     3.92781159863883E-8      0
3.148276193146159E-8      3.963905799319415E-8     0
3.127426679396292E-8      3.92781159863883E-8      0
3.127426679396293E-8      4.0E-8                   0
3.1065771656464264E-8     3.963905799319415E-8     0
3.0857276518965604E-8     4.0E-8                   0
3.92781159863883E-8       3.1691264730633184E-8    0
3.9639057993194144E-8     3.148276959313452E-8     0
3.92781159863883E-8       3.127427445563585E-8     0
3.9639057993194144E-8     3.1065779318137185E-8    0
3.9999999999999994E-8     3.127427445563585E-8     0
3.9999999999999994E-8     3.0857284180638525E-8    0
3.8917173979582456E-8     3.189975986813186E-8     0
3.8917173979582456E-8     3.148276959313453E-8     0
3.8556231972776605E-8     3.1691264730633204E-8    0
3.855623197277661E-8      3.2108255005630516E-8    0
3.2108247343957575E-8     3.8556231972776605E-8    0
3.189975220645891E-8      3.8917173979582456E-8    0
3.1691257068960236E-8     3.8556231972776605E-8    0
3.1482761931461576E-8     3.8917173979582456E-8    0
3.783434795916492E-8      3.252524528062782E-8     0
3.819528996597077E-8      3.231675014312917E-8     0
3.783434795916492E-8      3.210825500563051E-8     0
3.819528996597076E-8      3.189975986813186E-8     0
3.189975220645891E-8      3.8195289965970754E-8    0
3.231674248145624E-8      3.8195289965970754E-8    0
3.210824734395758E-8      3.7834347959164904E-8    0
3.252523761895491E-8      3.7834347959164904E-8    0
3.7112463945553236E-8     3.294223555562516E-8     0
3.747340595235908E-8      3.273374041812649E-8     0
3.7112463945553236E-8     3.2525245280627836E-8    0
3.747340595235908E-8      3.231675014312917E-8     0
3.231674248145624E-8      3.747340595235906E-8     0
3.2733732756453574E-8     3.747340595235906E-8     0
3.252523761895491E-8      3.7112463945553216E-8    0
3.294222789395225E-8      3.7112463945553216E-8    0
3.3349486613413504E-8     3.63838495708648E-8      0
3.315072303145092E-8      3.6751521938747365E-8    0
3.294222789395226E-8      3.6390579931941515E-8    0
3.273373275645359E-8      3.6751521938747365E-8    0
3.35502890633858E-8       3.6013326753350505E-8    0
3.314303034392456E-8      3.6020057114427225E-8    0
3.334383279389685E-8      3.564953429691293E-8     0
3.3746084033883743E-8     3.565133734583475E-8     0
3.6390579931941554E-8     3.3359225830622475E-8    0
3.67515219387474E-8       3.3150730693123815E-8    0
3.639057993194156E-8      3.294223555562514E-8     0
3.67515219387474E-8       3.273374041812649E-8     0
3.6029637925135704E-8     3.356772096812114E-8     0
3.6029637925135704E-8     3.315073069312381E-8     0
3.566869591832985E-8      3.3359225830622475E-8    0
3.56904998301464E-8       3.378461977971165E-8     0
3.353916302683957E-8      3.530252965534136E-8     0
3.394141426682646E-8      3.5304332704263185E-8    0
3.373449325978229E-8      3.495552501376979E-8     0
3.407077086529314E-8      3.4988850874126754E-8    0
3.533515509289135E-8      3.3982318154023507E-8    0
3.5313351181074795E-8     3.355692420493433E-8     0
3.495800644381974E-8      3.3754622579246186E-8    0
3.4992808523048754E-8     3.419503839800301E-8     0
3.43048505278158E-8       3.460612292118214E-8     0
3.4615131593552694E-8     3.441276166232019E-8     0
3.420265258482762E-8      3.419006910788055E-8     0
3.458032951432368E-8      3.397234584356337E-8     0
3.3968572922304954E-8     3.4572797060825164E-8    0
3.92781159863883E-8       3.085728418063852E-8     0
3.9639057993194144E-8     3.064878904313986E-8     0
3.92781159863883E-8       3.044029390564119E-8     0
3.963905799319416E-8      3.023179876814253E-8     0
4.0E-8                    3.04402939056412E-8      0
4.000000000000001E-8      3.0023303630643866E-8    0
3.064878138146694E-8      3.963905799319415E-8     0
3.0857276518965604E-8     3.92781159863883E-8      0
3.044028624396828E-8      3.92781159863883E-8      0
3.0440286243968284E-8     4.0E-8                   0
3.023179110646962E-8      3.963905799319415E-8     0
3.002329596897096E-8      4.0E-8                   0
3.064878138146694E-8      3.8917173979582456E-8    0
3.106577165646426E-8      3.8917173979582456E-8    0
3.085727651896559E-8      3.8556231972776605E-8    0
3.127426679396291E-8      3.8556231972776605E-8    0
3.891717397958245E-8      3.1065779318137185E-8    0
3.891717397958245E-8      3.064878904313986E-8     0
3.85562319727766E-8       3.0857284180638525E-8    0
3.85562319727766E-8       3.1274274455635864E-8    0
3.783434795916491E-8      3.169126473063319E-8     0
3.8195289965970754E-8     3.148276959313454E-8     0
3.7834347959164904E-8     3.127427445563587E-8     0
3.8195289965970754E-8     3.10657793181372E-8      0
3.1691257068960256E-8     3.783434795916491E-8     0
3.1482761931461576E-8     3.819528996597076E-8     0
3.127426679396292E-8      3.783434795916492E-8     0
3.106577165646426E-8      3.819528996597076E-8     0
3.711246394555322E-8      3.2108255005630516E-8    0
3.7473405952359066E-8     3.189975986813186E-8     0
3.7112463945553216E-8     3.1691264730633204E-8    0
3.747340595235906E-8      3.148276959313454E-8     0
3.1482761931461576E-8     3.7473405952359066E-8    0
3.189975220645891E-8      3.747340595235906E-8     0
3.1691257068960236E-8     3.7112463945553216E-8    0
3.2108247343957575E-8     3.7112463945553216E-8    0
3.639057993194155E-8      3.2525245280627836E-8    0
3.6751521938747385E-8     3.231675014312918E-8     0
3.6390579931941535E-8     3.210825500563053E-8     0
3.675152193874738E-8      3.1899759868131863E-8    0
3.25252376189549E-8       3.6390579931941515E-8    0
3.231674248145623E-8      3.6751521938747365E-8    0
3.210824734395754E-8      3.6390579931941515E-8    0
3.189975220645889E-8      3.6751521938747365E-8    0
3.293453520642588E-8      3.565911510762137E-8     0
3.2733732756453574E-8     3.6029637925135664E-8    0
3.2525237618954895E-8     3.566869591832981E-8     0
3.2316742481456215E-8     3.6029637925135664E-8    0
3.311531005837596E-8      3.5291570261937234E-8    0
3.270601247090498E-8      3.530115107264567E-8     0
3.288678732285506E-8      3.4933606226961546E-8    0
3.3310640291318676E-8     3.494456562036567E-8     0
3.566869591832985E-8      3.294223555562517E-8     0
3.6029637925135704E-8     3.27337404181265E-8      0
3.566869591832985E-8      3.252524528062786E-8     0
3.602963792513569E-8      3.2316750143129196E-8    0
3.495240917426896E-8      3.334842906743568E-8     0
3.5307753911524016E-8     3.315073069312382E-8     0
3.494681190471818E-8      3.294223555562517E-8     0
3.5307753911524016E-8     3.2733740418126515E-8    0
3.351074930664626E-8      3.458696761732241E-8     0
3.3086896338182646E-8     3.457600822391829E-8     0
3.3287005353510223E-8     3.421841022087504E-8     0
3.374482896916892E-8      3.4204239664377796E-8    0
3.4607854887378405E-8     3.354420791866697E-8     0
3.4230177957882345E-8     3.376193118298415E-8     0
3.425770333093707E-8      3.333379325808776E-8     0
3.4602257617827625E-8     3.313801440685646E-8     0
3.395697675039416E-8      3.345492187623266E-8     0
3.3929451377339434E-8     3.388305980112906E-8     0
3.365625016985125E-8      3.357605049437757E-8     0
3.347162776168074E-8      3.38972303576263E-8      0
3.92781159863883E-8       3.0023303630643866E-8    0
3.963905799319416E-8      2.9814808493145207E-8    0
3.92781159863883E-8       2.9606313355646547E-8    0
3.963905799319416E-8      2.9397818218147887E-8    0
4.000000000000001E-8      2.9606313355646547E-8    0
4.000000000000001E-8      2.918932308064923E-8     0
2.981480083147229E-8      3.963905799319415E-8     0
3.002329596897095E-8      3.92781159863883E-8      0
2.960630569397363E-8      3.92781159863883E-8      0
2.9606305693973632E-8     4.0E-8                   0
2.9397810556474966E-8     3.963905799319415E-8     0
2.9189315418976306E-8     4.0E-8                   0
3.8917173979582456E-8     3.023179876814252E-8     0
3.8917173979582456E-8     2.98148084931452E-8      0
3.8556231972776605E-8     3.002330363064385E-8     0
3.85562319727766E-8       3.0440293905641186E-8    0
2.981480083147229E-8      3.8917173979582456E-8    0
3.023179110646962E-8      3.8917173979582456E-8    0
3.002329596897096E-8      3.8556231972776605E-8    0
3.044028624396827E-8      3.8556231972776605E-8    0
3.0857276518965604E-8     3.783434795916492E-8     0
3.064878138146694E-8      3.819528996597076E-8     0
3.044028624396828E-8      3.783434795916492E-8     0
3.023179110646962E-8      3.819528996597076E-8     0
3.7834347959164904E-8     3.0857284180638525E-8    0
3.8195289965970754E-8     3.064878904313985E-8     0
3.7834347959164904E-8     3.044029390564118E-8     0
3.8195289965970754E-8     3.023179876814252E-8     0
3.711246394555321E-8      3.1274274455635864E-8    0
3.747340595235905E-8      3.10657793181372E-8      0
3.71124639455532E-8       3.0857284180638525E-8    0
3.747340595235905E-8      3.064878904313985E-8     0
3.064878138146694E-8      3.747340595235908E-8     0
3.106577165646426E-8      3.747340595235908E-8     0
3.085727651896559E-8      3.7112463945553236E-8    0
3.127426679396291E-8      3.711246394555322E-8     0
3.675152193874736E-8      3.10657793181372E-8      0
3.6751521938747365E-8     3.148276959313454E-8     0
3.6390579931941515E-8     3.127427445563587E-8     0
3.639057993194152E-8      3.16912647306332E-8      0
3.1482761931461576E-8     3.675152193874738E-8     0
3.106577165646425E-8      3.6751521938747385E-8    0
3.127426679396291E-8      3.6390579931941535E-8    0
3.169125706896023E-8      3.639057993194152E-8     0
3.5668695918329847E-8     3.210825500563054E-8     0
3.6029637925135684E-8     3.1899759868131877E-8    0
3.5668695918329833E-8     3.1691264730633224E-8    0
3.602963792513568E-8      3.1482769593134544E-8    0
3.210824734395755E-8      3.566869591832982E-8     0
3.189975220645887E-8      3.602963792513568E-8     0
3.16912570689602E-8       3.5668695918329833E-8    0
3.1482761931461556E-8     3.6029637925135684E-8    0
3.24975173334063E-8       3.494020906583984E-8     0
3.2316742481456215E-8     3.530775391152397E-8     0
3.2108247343957536E-8     3.494681190471813E-8     0
3.189975220645887E-8      3.530775391152398E-8     0
3.288544399987328E-8      3.4202457335997794E-8    0
3.26853349845457E-8       3.4560055339041045E-8    0
3.248388264623634E-8      3.418650445112055E-8     0
3.2296064995096934E-8     3.456665817791934E-8     0
3.4946811904718165E-8     3.252524528062787E-8     0
3.5307753911524E-8        3.2316750143129216E-8    0
3.494681190471815E-8      3.210825500563057E-8     0
3.530775391152399E-8      3.1899759868131896E-8    0
3.42478164497706E-8       3.2930589625032306E-8    0
3.4592370736661155E-8     3.2734810773801014E-8    0
3.423792956860414E-8      3.252738599197685E-8     0
3.459237073666114E-8      3.231782049880371E-8     0
3.328025408800854E-8      3.348558161646975E-8     0
3.309563167983803E-8      3.3806761479718486E-8    0
3.2904258006165835E-8     3.339511273856193E-8     0
3.269407032620109E-8      3.379080859484124E-8     0
3.32527135797552E-8       3.314754572875821E-8     0
3.3628709661597906E-8     3.323801460666602E-8     0